TITLE = "Visualization of the volumetric solution"
VARIABLES = "x","y","Conservative_1","Conservative_2","Conservative_3","Conservative_4","Pressure","Temperature","Pressure_Coefficient","Mach"
ZONE NODES= 5233, ELEMENTS= 10216, DATAPACKING=POINT, ZONETYPE=FEQUADRILATERAL
9.997500e-01	-3.632897e-05	1.290308e+00	1.461545e+02	2.036025e+01	2.850586e+05	1.106482e+05	2.987316e+02	5.257862e-01	3.300677e-01	
9.990000e-01	-1.452538e-04	1.280453e+00	1.540768e+02	2.165461e+01	2.832706e+05	1.095270e+05	2.979805e+02	4.625561e-01	3.511384e-01	
9.977600e-01	-3.251112e-04	1.272834e+00	1.601948e+02	2.277745e+01	2.819259e+05	1.086565e+05	2.973818e+02	4.134660e-01	3.677196e-01	
9.960200e-01	-5.769984e-04	1.267259e+00	1.648944e+02	2.347546e+01	2.809790e+05	1.080134e+05	2.969224e+02	3.771988e-01	3.804762e-01	
9.937800e-01	-9.004365e-04	1.262331e+00	1.686866e+02	2.402038e+01	2.801175e+05	1.074472e+05	2.965190e+02	3.452671e-01	3.910132e-01	
9.910500e-01	-1.293364e-03	1.258091e+00	1.718556e+02	2.445755e+01	2.793681e+05	1.069570e+05	2.961608e+02	3.176227e-01	3.999382e-01	
9.878400e-01	-1.753610e-03	1.254241e+00	1.745710e+02	2.476557e+01	2.786721e+05	1.065115e+05	2.958326e+02	2.924976e-01	4.077051e-01	
9.841300e-01	-2.283177e-03	1.250741e+00	1.770288e+02	2.499891e+01	2.780305e+05	1.061010e+05	2.955169e+02	2.693446e-01	4.147859e-01	
9.799500e-01	-2.876826e-03	1.247498e+00	1.792594e+02	2.519080e+01	2.774255e+05	1.057167e+05	2.952121e+02	2.476738e-01	4.212817e-01	
9.752800e-01	-3.536324e-03	1.244480e+00	1.813364e+02	2.533586e+01	2.768527e+05	1.053533e+05	2.949109e+02	2.271797e-01	4.273671e-01	
9.701500e-01	-4.256269e-03	1.241651e+00	1.832935e+02	2.544503e+01	2.763065e+05	1.050067e+05	2.946103e+02	2.076323e-01	4.331313e-01	
9.645400e-01	-5.038225e-03	1.238983e+00	1.851537e+02	2.552391e+01	2.757814e+05	1.046735e+05	2.943077e+02	1.888419e-01	4.386367e-01	
9.584700e-01	-5.878077e-03	1.236465e+00	1.869397e+02	2.557381e+01	2.752763e+05	1.043521e+05	2.940016e+02	1.707142e-01	4.439382e-01	
9.519400e-01	-6.774429e-03	1.234076e+00	1.886571e+02	2.559857e+01	2.747873e+05	1.040406e+05	2.936915e+02	1.531477e-01	4.490538e-01	
9.449600e-01	-7.724467e-03	1.231810e+00	1.903178e+02	2.559901e+01	2.743138e+05	1.037382e+05	2.933765e+02	1.360938e-01	4.540124e-01	
9.375400e-01	-8.725349e-03	1.229657e+00	1.919233e+02	2.557691e+01	2.738536e+05	1.034440e+05	2.930567e+02	1.195030e-01	4.588193e-01	
9.296900e-01	-9.774221e-03	1.227609e+00	1.934774e+02	2.553320e+01	2.734051e+05	1.031572e+05	2.927319e+02	1.033295e-01	4.634851e-01	
9.214000e-01	-1.087086e-02	1.225652e+00	1.949808e+02	2.546945e+01	2.729657e+05	1.028768e+05	2.924022e+02	8.751355e-02	4.680148e-01	
9.127000e-01	-1.200973e-02	1.223781e+00	1.964345e+02	2.538565e+01	2.725345e+05	1.026024e+05	2.920681e+02	7.203771e-02	4.724108e-01	
9.035800e-01	-1.319056e-02	1.221983e+00	1.978325e+02	2.528306e+01	2.721075e+05	1.023328e+05	2.917292e+02	5.683460e-02	4.766633e-01	
8.940600e-01	-1.440916e-02	1.220252e+00	1.991792e+02	2.516058e+01	2.716835e+05	1.020673e+05	2.913853e+02	4.186309e-02	4.807836e-01	
8.841500e-01	-1.566269e-02	1.218577e+00	2.004708e+02	2.502139e+01	2.712606e+05	1.018055e+05	2.910372e+02	2.709811e-02	4.847655e-01	
8.738500e-01	-1.694956e-02	1.216944e+00	2.017025e+02	2.486392e+01	2.708346e+05	1.015460e+05	2.906850e+02	1.246310e-02	4.886023e-01	
8.631800e-01	-1.826569e-02	1.215351e+00	2.028792e+02	2.468859e+01	2.704063e+05	1.012889e+05	2.903289e+02	-2.036839e-03	4.923045e-01	
8.521600e-01	-1.960709e-02	1.213781e+00	2.039923e+02	2.449684e+01	2.699715e+05	1.010330e+05	2.899702e+02	-1.646770e-02	4.958579e-01	
8.407700e-01	-2.097463e-02	1.212230e+00	2.050487e+02	2.428816e+01	2.695309e+05	1.007782e+05	2.896091e+02	-3.083529e-02	4.992782e-01	
8.290500e-01	-2.236196e-02	1.210686e+00	2.060416e+02	2.406346e+01	2.690825e+05	1.005243e+05	2.892477e+02	-4.515676e-02	5.025525e-01	
8.170100e-01	-2.376642e-02	1.209145e+00	2.069748e+02	2.382134e+01	2.686264e+05	1.002709e+05	2.888865e+02	-5.944384e-02	5.056899e-01	
8.046400e-01	-2.518764e-02	1.207596e+00	2.078537e+02	2.356459e+01	2.681620e+05	1.000176e+05	2.885261e+02	-7.373090e-02	5.087072e-01	
7.919700e-01	-2.662063e-02	1.206016e+00	2.086840e+02	2.329914e+01	2.676865e+05	9.976262e+04	2.881677e+02	-8.811163e-02	5.116287e-01	
7.790100e-01	-2.806277e-02	1.204264e+00	2.094895e+02	2.305079e+01	2.671719e+05	9.949210e+04	2.878042e+02	-1.033677e-01	5.145840e-01	
7.657800e-01	-2.951034e-02	1.202377e+00	2.102748e+02	2.279826e+01	2.666291e+05	9.921051e+04	2.874400e+02	-1.192479e-01	5.175613e-01	
7.522800e-01	-3.096181e-02	1.200824e+00	2.110967e+02	2.244391e+01	2.662006e+05	9.897447e+04	2.871271e+02	-1.325598e-01	5.204238e-01	
7.385200e-01	-3.241453e-02	1.199310e+00	2.119389e+02	2.211327e+01	2.657879e+05	9.874297e+04	2.868170e+02	-1.456154e-01	5.233341e-01	
7.245300e-01	-3.386377e-02	1.197808e+00	2.127909e+02	2.177006e+01	2.653897e+05	9.851627e+04	2.865174e+02	-1.583998e-01	5.262625e-01	
7.103200e-01	-3.530689e-02	1.196254e+00	2.135824e+02	2.142347e+01	2.649898e+05	9.829246e+04	2.862380e+02	-1.710217e-01	5.290582e-01	
6.958900e-01	-3.674225e-02	1.194703e+00	2.143718e+02	2.104990e+01	2.646015e+05	9.807326e+04	2.859704e+02	-1.833840e-01	5.318412e-01	
6.812700e-01	-3.816515e-02	1.193106e+00	2.151262e+02	2.066354e+01	2.642140e+05	9.785624e+04	2.857194e+02	-1.956230e-01	5.345516e-01	
6.664700e-01	-3.957289e-02	1.191476e+00	2.158659e+02	2.025451e+01	2.638311e+05	9.764167e+04	2.854830e+02	-2.077235e-01	5.372335e-01	
6.515000e-01	-4.096270e-02	1.189799e+00	2.165871e+02	1.982586e+01	2.634491e+05	9.742823e+04	2.852605e+02	-2.197610e-01	5.398850e-01	
6.363800e-01	-4.233084e-02	1.188076e+00	2.172930e+02	1.937549e+01	2.630689e+05	9.721600e+04	2.850519e+02	-2.317298e-01	5.425133e-01	
6.211300e-01	-4.367359e-02	1.186305e+00	2.179861e+02	1.890110e+01	2.626889e+05	9.700425e+04	2.848556e+02	-2.436712e-01	5.451269e-01	
6.057600e-01	-4.498807e-02	1.184488e+00	2.186662e+02	1.840280e+01	2.623098e+05	9.679322e+04	2.846720e+02	-2.555727e-01	5.477248e-01	
5.902800e-01	-4.627133e-02	1.182628e+00	2.193383e+02	1.787678e+01	2.619311e+05	9.658239e+04	2.844986e+02	-2.674624e-01	5.503198e-01	
5.747100e-01	-4.751951e-02	1.180727e+00	2.200006e+02	1.732346e+01	2.615532e+05	9.637205e+04	2.843361e+02	-2.793245e-01	5.529066e-01	
5.590600e-01	-4.872956e-02	1.178793e+00	2.206595e+02	1.673845e+01	2.611766e+05	9.616200e+04	2.841818e+02	-2.911706e-01	5.554999e-01	
5.433600e-01	-4.989684e-02	1.176830e+00	2.213121e+02	1.612208e+01	2.608020e+05	9.595272e+04	2.840364e+02	-3.029732e-01	5.580909e-01	
5.276100e-01	-5.101898e-02	1.174850e+00	2.219659e+02	1.546927e+01	2.604310e+05	9.574439e+04	2.838974e+02	-3.147218e-01	5.606949e-01	
5.118400e-01	-5.209138e-02	1.172859e+00	2.226179e+02	1.478065e+01	2.600649e+05	9.553777e+04	2.837655e+02	-3.263745e-01	5.633012e-01	
4.960500e-01	-5.311154e-02	1.170877e+00	2.232766e+02	1.405134e+01	2.597070e+05	9.533368e+04	2.836387e+02	-3.378842e-01	5.659248e-01	
4.802700e-01	-5.407492e-02	1.168910e+00	2.239375e+02	1.328235e+01	2.593585e+05	9.513292e+04	2.835176e+02	-3.492062e-01	5.685509e-01	
4.645100e-01	-5.497836e-02	1.166988e+00	2.246063e+02	1.246880e+01	2.590240e+05	9.493711e+04	2.834002e+02	-3.602491e-01	5.711826e-01	
4.487800e-01	-5.581860e-02	1.165109e+00	2.252744e+02	1.161021e+01	2.587020e+05	9.474629e+04	2.832865e+02	-3.710102e-01	5.737985e-01	
4.331100e-01	-5.659142e-02	1.163305e+00	2.259528e+02	1.070094e+01	2.583978e+05	9.456189e+04	2.831738e+02	-3.814098e-01	5.764153e-01	
4.175000e-01	-5.729417e-02	1.161571e+00	2.266349e+02	9.740317e+00	2.581096e+05	9.438374e+04	2.830622e+02	-3.914569e-01	5.790181e-01	
4.019700e-01	-5.792324e-02	1.159919e+00	2.273235e+02	8.723487e+00	2.578389e+05	9.421218e+04	2.829501e+02	-4.011320e-01	5.816109e-01	
3.865400e-01	-5.847521e-02	1.158352e+00	2.280168e+02	7.648072e+00	2.575856e+05	9.404732e+04	2.828370e+02	-4.104291e-01	5.841892e-01	
3.712300e-01	-5.894684e-02	1.156874e+00	2.287144e+02	6.509899e+00	2.573495e+05	9.388908e+04	2.827219e+02	-4.193536e-01	5.867524e-01	
3.560400e-01	-5.933562e-02	1.155500e+00	2.294226e+02	5.306998e+00	2.571321e+05	9.373768e+04	2.826016e+02	-4.278913e-01	5.893135e-01	
3.409900e-01	-5.963848e-02	1.154220e+00	2.301329e+02	4.036475e+00	2.569312e+05	9.359270e+04	2.824774e+02	-4.360676e-01	5.918562e-01	
3.261100e-01	-5.985254e-02	1.153048e+00	2.308450e+02	2.693354e+00	2.567485e+05	9.345493e+04	2.823483e+02	-4.438373e-01	5.943759e-01	
3.114000e-01	-5.997565e-02	1.151979e+00	2.315539e+02	1.274696e+00	2.565826e+05	9.332407e+04	2.822145e+02	-4.512176e-01	5.968642e-01	
2.968700e-01	-6.000550e-02	1.151019e+00	2.322576e+02	-2.233965e-01	2.564342e+05	9.320049e+04	2.820760e+02	-4.581870e-01	5.993159e-01	
2.825500e-01	-5.994005e-02	1.150164e+00	2.329471e+02	-1.805049e+00	2.563023e+05	9.308442e+04	2.819342e+02	-4.647327e-01	6.017111e-01	
2.684500e-01	-5.977766e-02	1.149426e+00	2.336196e+02	-3.474201e+00	2.561893e+05	9.297703e+04	2.817895e+02	-4.707889e-01	6.040387e-01	
2.545700e-01	-5.951658e-02	1.148788e+00	2.342618e+02	-5.234978e+00	2.560911e+05	9.287749e+04	2.816443e+02	-4.764026e-01	6.062764e-01	
2.409400e-01	-5.915586e-02	1.148265e+00	2.348738e+02	-7.093179e+00	2.560116e+05	9.278736e+04	2.814992e+02	-4.814857e-01	6.084194e-01	
2.275700e-01	-5.869457e-02	1.147839e+00	2.354342e+02	-9.050994e+00	2.559469e+05	9.270646e+04	2.813580e+02	-4.860476e-01	6.104228e-01	
2.144700e-01	-5.813197e-02	1.147529e+00	2.359447e+02	-1.111616e+01	2.559012e+05	9.263636e+04	2.812213e+02	-4.900010e-01	6.122872e-01	
2.016600e-01	-5.746811e-02	1.147311e+00	2.363796e+02	-1.329208e+01	2.558695e+05	9.257678e+04	2.810937e+02	-4.933613e-01	6.139596e-01	
1.891400e-01	-5.670228e-02	1.147208e+00	2.367429e+02	-1.558774e+01	2.558578e+05	9.252969e+04	2.809759e+02	-4.960171e-01	6.154470e-01	
1.769300e-01	-5.583514e-02	1.147195e+00	2.370039e+02	-1.800540e+01	2.558600e+05	9.249475e+04	2.808731e+02	-4.979874e-01	6.166859e-01	
1.650400e-01	-5.486709e-02	1.147302e+00	2.371695e+02	-2.055837e+01	2.558842e+05	9.247450e+04	2.807855e+02	-4.991294e-01	6.176900e-01	
1.534900e-01	-5.379978e-02	1.147496e+00	2.371999e+02	-2.324488e+01	2.559223e+05	9.246838e+04	2.807193e+02	-4.994745e-01	6.183774e-01	
1.422900e-01	-5.263443e-02	1.147828e+00	2.371031e+02	-2.608569e+01	2.559860e+05	9.248032e+04	2.806744e+02	-4.988009e-01	6.187607e-01	
1.314400e-01	-5.137134e-02	1.148261e+00	2.368296e+02	-2.907915e+01	2.560656e+05	9.250972e+04	2.806579e+02	-4.971434e-01	6.187388e-01	
1.209500e-01	-5.001187e-02	1.148831e+00	2.363971e+02	-3.225480e+01	2.561713e+05	9.255864e+04	2.806669e+02	-4.943843e-01	6.183680e-01	
1.108500e-01	-4.856067e-02	1.149542e+00	2.357642e+02	-3.561027e+01	2.563021e+05	9.262946e+04	2.807079e+02	-4.903901e-01	6.175541e-01	
1.011300e-01	-4.701715e-02	1.150429e+00	2.349189e+02	-3.917227e+01	2.564657e+05	9.272538e+04	2.807819e+02	-4.849809e-01	6.162827e-01	
9.181000e-02	-4.538527e-02	1.151505e+00	2.338171e+02	-4.295574e+01	2.566629e+05	9.284920e+04	2.808940e+02	-4.779980e-01	6.144665e-01	
8.290000e-02	-4.366791e-02	1.152826e+00	2.324321e+02	-4.698850e+01	2.569050e+05	9.300640e+04	2.810473e+02	-4.691324e-01	6.120569e-01	
7.440000e-02	-4.186608e-02	1.154443e+00	2.307341e+02	-5.129793e+01	2.572028e+05	9.320204e+04	2.812440e+02	-4.580994e-01	6.090111e-01	
6.633000e-02	-3.998514e-02	1.156430e+00	2.286650e+02	-5.591308e+01	2.575700e+05	9.344439e+04	2.814907e+02	-4.444316e-01	6.052144e-01	
5.869000e-02	-3.802636e-02	1.158885e+00	2.261630e+02	-6.087457e+01	2.580262e+05	9.374353e+04	2.817937e+02	-4.275618e-01	6.005580e-01	
5.149000e-02	-3.599338e-02	1.161901e+00	2.231429e+02	-6.621311e+01	2.585888e+05	9.410996e+04	2.821609e+02	-4.068965e-01	5.948956e-01	
4.474000e-02	-3.389028e-02	1.165668e+00	2.194788e+02	-7.197013e+01	2.592947e+05	9.456422e+04	2.826065e+02	-3.812784e-01	5.879697e-01	
3.844000e-02	-3.171811e-02	1.170336e+00	2.149956e+02	-7.817980e+01	2.601703e+05	9.512449e+04	2.831470e+02	-3.496814e-01	5.794706e-01	
3.260000e-02	-2.948109e-02	1.176164e+00	2.095131e+02	-8.487753e+01	2.612667e+05	9.581742e+04	2.837965e+02	-3.106036e-01	5.691018e-01	
2.723000e-02	-2.718420e-02	1.183492e+00	2.027413e+02	-9.203677e+01	2.626479e+05	9.668144e+04	2.845826e+02	-2.618767e-01	5.563041e-01	
2.232000e-02	-2.482329e-02	1.192630e+00	1.942900e+02	-9.959391e+01	2.643694e+05	9.775408e+04	2.855352e+02	-2.013840e-01	5.404146e-01	
1.790000e-02	-2.241365e-02	1.204067e+00	1.836678e+02	-1.073927e+02	2.665237e+05	9.909046e+04	2.866893e+02	-1.260181e-01	5.205780e-01	
1.395000e-02	-1.994492e-02	1.218385e+00	1.702940e+02	-1.150028e+02	2.692196e+05	1.007564e+05	2.880837e+02	-3.206577e-02	4.956736e-01	
1.049000e-02	-1.742916e-02	1.235991e+00	1.533829e+02	-1.217136e+02	2.725249e+05	1.028060e+05	2.897567e+02	8.351920e-02	4.642461e-01	
7.520000e-03	-1.486756e-02	1.257427e+00	1.323331e+02	-1.262262e+02	2.765437e+05	1.052979e+05	2.917207e+02	2.240531e-01	4.247671e-01	
5.040000e-03	-1.226032e-02	1.282671e+00	1.067365e+02	-1.263524e+02	2.812600e+05	1.082383e+05	2.939652e+02	3.898783e-01	3.751691e-01	
3.050000e-03	-9.605565e-03	1.310786e+00	7.721837e+01	-1.191692e+02	2.864945e+05	1.115212e+05	2.963847e+02	5.750189e-01	3.138915e-01	
1.560000e-03	-6.917518e-03	1.338019e+00	4.667044e+01	-1.016686e+02	2.915162e+05	1.147359e+05	2.987221e+02	7.563143e-01	2.413040e-01	
5.600000e-04	-4.173160e-03	1.366612e+00	1.919985e+01	-7.149118e+01	2.969204e+05	1.179662e+05	3.007065e+02	9.384934e-01	1.558152e-01	
6.000000e-05	-1.375330e-03	1.377791e+00	4.465957e+00	-3.257414e+01	2.988298e+05	1.193750e+05	3.018287e+02	1.017941e+00	6.851796e-02	
0.000000e+00	0.000000e+00	1.376572e+00	1.667484e+00	-2.079035e+00	2.983751e+05	1.193490e+05	3.020302e+02	1.016475e+00	5.557056e-03	
6.000000e-05	1.375330e-03	1.377127e+00	4.182621e+00	2.893948e+01	2.985408e+05	1.192921e+05	3.017646e+02	1.013268e+00	6.097096e-02	
5.600000e-04	4.173160e-03	1.365502e+00	1.864608e+01	6.866757e+01	2.964224e+05	1.178274e+05	3.005968e+02	9.306632e-01	1.499225e-01	
1.560000e-03	6.917518e-03	1.336354e+00	4.596475e+01	9.973459e+01	2.908140e+05	1.145207e+05	2.985334e+02	7.441800e-01	2.372479e-01	
3.050000e-03	9.605565e-03	1.308279e+00	7.664461e+01	1.180156e+02	2.855535e+05	1.111942e+05	2.960820e+02	5.565807e-01	3.118171e-01	
5.040000e-03	1.226032e-02	1.279203e+00	1.064205e+02	1.257749e+02	2.800767e+05	1.077867e+05	2.935324e+02	3.644099e-01	3.749953e-01	
7.520000e-03	1.486756e-02	1.253052e+00	1.322542e+02	1.259964e+02	2.751402e+05	1.047305e+05	2.911617e+02	1.920545e-01	4.261561e-01	
1.049000e-02	1.742916e-02	1.230794e+00	1.534883e+02	1.216813e+02	2.709260e+05	1.021362e+05	2.890844e+02	4.574880e-02	4.668970e-01	
1.395000e-02	1.994492e-02	1.212436e+00	1.705273e+02	1.150685e+02	2.674442e+05	9.999663e+04	2.873141e+02	-7.491417e-02	4.993308e-01	
1.790000e-02	2.241365e-02	1.197425e+00	1.839891e+02	1.075083e+02	2.645886e+05	9.825084e+04	2.858369e+02	-1.733690e-01	5.250727e-01	
2.232000e-02	2.482329e-02	1.185314e+00	1.946622e+02	9.972459e+01	2.622823e+05	9.684108e+04	2.846141e+02	-2.528734e-01	5.456040e-01	
2.723000e-02	2.718420e-02	1.175523e+00	2.031395e+02	9.216754e+01	2.604165e+05	9.570048e+04	2.836047e+02	-3.171984e-01	5.620899e-01	
3.260000e-02	2.948109e-02	1.167540e+00	2.099106e+02	8.499550e+01	2.588936e+05	9.477203e+04	2.827736e+02	-3.695588e-01	5.753901e-01	
3.844000e-02	3.171811e-02	1.161066e+00	2.153737e+02	7.827952e+01	2.576603e+05	9.401839e+04	2.820892e+02	-4.120610e-01	5.861878e-01	
4.474000e-02	3.389028e-02	1.155757e+00	2.198156e+02	7.204734e+01	2.566513e+05	9.340083e+04	2.815234e+02	-4.468886e-01	5.950367e-01	
5.149000e-02	3.599338e-02	1.151368e+00	2.234207e+02	6.626703e+01	2.558177e+05	9.289341e+04	2.810612e+02	-4.755049e-01	6.022388e-01	
5.869000e-02	3.802636e-02	1.147758e+00	2.263612e+02	6.090264e+01	2.551344e+05	9.247884e+04	2.806870e+02	-4.988849e-01	6.080897e-01	
6.633000e-02	3.998514e-02	1.144762e+00	2.287735e+02	5.592130e+01	2.545705e+05	9.213807e+04	2.803848e+02	-5.181027e-01	6.128672e-01	
7.440000e-02	4.186608e-02	1.142288e+00	2.307371e+02	5.128249e+01	2.541083e+05	9.186129e+04	2.801478e+02	-5.337120e-01	6.166935e-01	
8.290000e-02	4.366791e-02	1.140285e+00	2.323429e+02	4.696200e+01	2.537398e+05	9.164071e+04	2.799661e+02	-5.461513e-01	6.197398e-01	
9.181000e-02	4.538527e-02	1.138663e+00	2.336308e+02	4.291720e+01	2.534462e+05	9.146770e+04	2.798357e+02	-5.559084e-01	6.220728e-01	
1.011300e-01	4.701715e-02	1.137413e+00	2.346607e+02	3.912857e+01	2.532279e+05	9.133933e+04	2.797499e+02	-5.631480e-01	6.237972e-01	
1.108500e-01	4.856067e-02	1.136473e+00	2.354569e+02	3.557240e+01	2.530710e+05	9.124923e+04	2.797052e+02	-5.682292e-01	6.249624e-01	
1.209500e-01	5.001187e-02	1.135822e+00	2.360490e+02	3.222120e+01	2.529722e+05	9.119481e+04	2.796986e+02	-5.712985e-01	6.256146e-01	
1.314400e-01	5.137134e-02	1.135452e+00	2.364771e+02	2.906208e+01	2.529309e+05	9.117352e+04	2.797243e+02	-5.724992e-01	6.258374e-01	
1.422900e-01	5.263443e-02	1.135329e+00	2.367626e+02	2.607643e+01	2.529391e+05	9.118091e+04	2.797774e+02	-5.720824e-01	6.256831e-01	
1.534900e-01	5.379978e-02	1.135459e+00	2.369340e+02	2.325557e+01	2.529993e+05	9.121635e+04	2.798540e+02	-5.700837e-01	6.252062e-01	
1.650400e-01	5.486709e-02	1.135806e+00	2.369895e+02	2.058528e+01	2.531024e+05	9.127662e+04	2.799533e+02	-5.666848e-01	6.244037e-01	
1.769300e-01	5.583514e-02	1.136366e+00	2.369498e+02	1.805438e+01	2.532479e+05	9.136027e+04	2.800719e+02	-5.619668e-01	6.233207e-01	
1.891400e-01	5.670228e-02	1.137113e+00	2.368259e+02	1.565233e+01	2.534301e+05	9.146424e+04	2.802063e+02	-5.561039e-01	6.219911e-01	
2.016600e-01	5.746811e-02	1.138054e+00	2.366363e+02	1.337426e+01	2.536499e+05	9.158773e+04	2.803528e+02	-5.491396e-01	6.204544e-01	
2.144700e-01	5.813197e-02	1.139163e+00	2.363852e+02	1.121052e+01	2.539014e+05	9.172814e+04	2.805093e+02	-5.412208e-01	6.187283e-01	
2.275700e-01	5.869457e-02	1.140442e+00	2.360828e+02	9.157226e+00	2.541848e+05	9.188493e+04	2.806736e+02	-5.323785e-01	6.168337e-01	
2.409400e-01	5.915586e-02	1.141872e+00	2.357317e+02	7.206587e+00	2.544957e+05	9.205615e+04	2.808445e+02	-5.227222e-01	6.147829e-01	
2.545700e-01	5.951658e-02	1.143449e+00	2.353363e+02	5.353562e+00	2.548335e+05	9.224135e+04	2.810212e+02	-5.122782e-01	6.125845e-01	
2.684500e-01	5.977766e-02	1.145168e+00	2.349021e+02	3.594883e+00	2.551972e+05	9.243978e+04	2.812030e+02	-5.010873e-01	6.102525e-01	
2.825500e-01	5.994005e-02	1.147022e+00	2.344287e+02	1.924477e+00	2.555851e+05	9.265088e+04	2.813896e+02	-4.891823e-01	6.077861e-01	
2.968700e-01	6.000550e-02	1.148984e+00	2.339164e+02	3.249464e-01	2.559900e+05	9.287157e+04	2.815783e+02	-4.767364e-01	6.051999e-01	
3.114000e-01	5.997565e-02	1.151191e+00	2.334904e+02	-1.220146e+00	2.564533e+05	9.310950e+04	2.817585e+02	-4.633181e-01	6.027543e-01	
3.261100e-01	5.985254e-02	1.153856e+00	2.330567e+02	-2.589579e+00	2.570489e+05	9.340380e+04	2.819962e+02	-4.467211e-01	6.000208e-01	
3.409900e-01	5.963848e-02	1.156551e+00	2.325436e+02	-3.896500e+00	2.576385e+05	9.370143e+04	2.822355e+02	-4.299361e-01	5.970982e-01	
3.560400e-01	5.933562e-02	1.159239e+00	2.320012e+02	-5.163290e+00	2.582164e+05	9.399576e+04	2.824657e+02	-4.133372e-01	5.941460e-01	
3.712300e-01	5.894684e-02	1.161917e+00	2.314300e+02	-6.374618e+00	2.587847e+05	9.428767e+04	2.826897e+02	-3.968746e-01	5.911602e-01	
3.865400e-01	5.847521e-02	1.164602e+00	2.308421e+02	-7.520349e+00	2.593476e+05	9.457804e+04	2.829067e+02	-3.804987e-01	5.881627e-01	
4.019700e-01	5.792324e-02	1.167262e+00	2.302165e+02	-8.609407e+00	2.598987e+05	9.486577e+04	2.831206e+02	-3.642724e-01	5.851092e-01	
4.175000e-01	5.729417e-02	1.169922e+00	2.295765e+02	-9.637068e+00	2.604449e+05	9.515200e+04	2.833292e+02	-3.481299e-01	5.820473e-01	
4.331100e-01	5.659142e-02	1.172538e+00	2.288959e+02	-1.061377e+01	2.609764e+05	9.543460e+04	2.835366e+02	-3.321930e-01	5.789271e-01	
4.487800e-01	5.581860e-02	1.175143e+00	2.282069e+02	-1.153259e+01	2.615027e+05	9.571512e+04	2.837397e+02	-3.163727e-01	5.758149e-01	
4.645100e-01	5.497836e-02	1.177680e+00	2.274759e+02	-1.240708e+01	2.620109e+05	9.599054e+04	2.839432e+02	-3.008399e-01	5.726490e-01	
4.802700e-01	5.407492e-02	1.180188e+00	2.267475e+02	-1.322681e+01	2.625124e+05	9.626241e+04	2.841422e+02	-2.855079e-01	5.695240e-01	
4.960500e-01	5.311154e-02	1.182604e+00	2.259798e+02	-1.400731e+01	2.629929e+05	9.652762e+04	2.843431e+02	-2.705511e-01	5.663605e-01	
5.118400e-01	5.209138e-02	1.184972e+00	2.252219e+02	-1.474423e+01	2.634666e+05	9.678859e+04	2.845419e+02	-2.558334e-01	5.632600e-01	
5.276100e-01	5.101898e-02	1.187258e+00	2.244439e+02	-1.543662e+01	2.639230e+05	9.704308e+04	2.847410e+02	-2.414814e-01	5.601623e-01	
5.433600e-01	4.989684e-02	1.189478e+00	2.236518e+02	-1.610127e+01	2.643687e+05	9.729345e+04	2.849427e+02	-2.273619e-01	5.570714e-01	
5.590600e-01	4.872956e-02	1.191651e+00	2.228746e+02	-1.671768e+01	2.648067e+05	9.753891e+04	2.851407e+02	-2.135190e-01	5.540532e-01	
5.747100e-01	4.751951e-02	1.193718e+00	2.220523e+02	-1.730966e+01	2.652234e+05	9.777805e+04	2.853448e+02	-2.000323e-01	5.509794e-01	
5.902800e-01	4.627133e-02	1.195744e+00	2.212618e+02	-1.786393e+01	2.656399e+05	9.801408e+04	2.855489e+02	-1.867211e-01	5.480119e-01	
6.057600e-01	4.498807e-02	1.197645e+00	2.204364e+02	-1.839597e+01	2.660327e+05	9.824194e+04	2.857585e+02	-1.738710e-01	5.450217e-01	
6.211300e-01	4.367359e-02	1.199510e+00	2.196415e+02	-1.889557e+01	2.664265e+05	9.846738e+04	2.859688e+02	-1.611575e-01	5.421300e-01	
6.363800e-01	4.233084e-02	1.201257e+00	2.188172e+02	-1.937546e+01	2.667989e+05	9.868525e+04	2.861848e+02	-1.488702e-01	5.392240e-01	
6.515000e-01	4.096270e-02	1.202969e+00	2.180173e+02	-1.982790e+01	2.671728e+05	9.890137e+04	2.864034e+02	-1.366822e-01	5.363981e-01	
6.664700e-01	3.957289e-02	1.204575e+00	2.171936e+02	-2.026240e+01	2.675291e+05	9.911116e+04	2.866282e+02	-1.248511e-01	5.335639e-01	
6.812700e-01	3.816515e-02	1.206148e+00	2.163883e+02	-2.067478e+01	2.678872e+05	9.931980e+04	2.868571e+02	-1.130843e-01	5.307925e-01	
6.958900e-01	3.674225e-02	1.207631e+00	2.155648e+02	-2.107053e+01	2.682318e+05	9.952345e+04	2.870923e+02	-1.015996e-01	5.280181e-01	
7.103200e-01	3.530689e-02	1.209084e+00	2.147528e+02	-2.144798e+01	2.685785e+05	9.972660e+04	2.873326e+02	-9.014288e-02	5.252867e-01	
7.245300e-01	3.386377e-02	1.210464e+00	2.139270e+02	-2.181013e+01	2.689154e+05	9.992606e+04	2.875790e+02	-7.889388e-02	5.225544e-01	
7.385200e-01	3.241453e-02	1.211821e+00	2.131052e+02	-2.215672e+01	2.692544e+05	1.001256e+05	2.878307e+02	-6.764047e-02	5.198440e-01	
7.522800e-01	3.096181e-02	1.213124e+00	2.122691e+02	-2.248973e+01	2.695871e+05	1.003230e+05	2.880884e+02	-5.650890e-02	5.171232e-01	
7.657800e-01	2.951034e-02	1.214411e+00	2.114330e+02	-2.280679e+01	2.699222e+05	1.005210e+05	2.883509e+02	-4.534416e-02	5.144102e-01	
7.790100e-01	2.806277e-02	1.215657e+00	2.105732e+02	-2.311234e+01	2.702517e+05	1.007178e+05	2.886195e+02	-3.424254e-02	5.116591e-01	
7.919700e-01	2.662063e-02	1.216904e+00	2.097105e+02	-2.340491e+01	2.705852e+05	1.009161e+05	2.888913e+02	-2.305992e-02	5.089038e-01	
8.046400e-01	2.518764e-02	1.218121e+00	2.088235e+02	-2.368156e+01	2.709142e+05	1.011138e+05	2.891681e+02	-1.190814e-02	5.061037e-01	
8.170100e-01	2.376642e-02	1.219336e+00	2.079135e+02	-2.394870e+01	2.712438e+05	1.013130e+05	2.894492e+02	-6.763770e-04	5.032532e-01	
8.290500e-01	2.236196e-02	1.220549e+00	2.069900e+02	-2.420136e+01	2.715738e+05	1.015130e+05	2.897322e+02	1.059980e-02	5.003748e-01	
8.407700e-01	2.097463e-02	1.221751e+00	2.060284e+02	-2.443974e+01	2.719001e+05	1.017136e+05	2.900191e+02	2.191478e-02	4.974122e-01	
8.521600e-01	1.960709e-02	1.222972e+00	2.050394e+02	-2.466338e+01	2.722282e+05	1.019166e+05	2.903077e+02	3.336120e-02	4.943812e-01	
8.631800e-01	1.826569e-02	1.224199e+00	2.040127e+02	-2.487264e+01	2.725537e+05	1.021207e+05	2.905975e+02	4.487226e-02	4.912631e-01	
8.738500e-01	1.694956e-02	1.225452e+00	2.029428e+02	-2.506542e+01	2.728795e+05	1.023275e+05	2.908884e+02	5.653762e-02	4.880370e-01	
8.841500e-01	1.566269e-02	1.226736e+00	2.018249e+02	-2.524042e+01	2.732055e+05	1.025374e+05	2.911801e+02	6.837361e-02	4.846901e-01	
8.940600e-01	1.440916e-02	1.228055e+00	2.006513e+02	-2.539794e+01	2.735320e+05	1.027509e+05	2.914727e+02	8.041301e-02	4.812023e-01	
9.035800e-01	1.319056e-02	1.229426e+00	1.994201e+02	-2.553584e+01	2.738613e+05	1.029690e+05	2.917658e+02	9.271455e-02	4.775645e-01	
9.127000e-01	1.200973e-02	1.230851e+00	1.981235e+02	-2.565267e+01	2.741933e+05	1.031922e+05	2.920598e+02	1.053036e-01	4.737573e-01	
9.214000e-01	1.087086e-02	1.232342e+00	1.967612e+02	-2.574949e+01	2.745308e+05	1.034215e+05	2.923547e+02	1.182358e-01	4.697770e-01	
9.296900e-01	9.774221e-03	1.233902e+00	1.953305e+02	-2.582397e+01	2.748738e+05	1.036571e+05	2.926502e+02	1.315218e-01	4.656170e-01	
9.375400e-01	8.725349e-03	1.235545e+00	1.938329e+02	-2.587436e+01	2.752244e+05	1.038997e+05	2.929449e+02	1.451995e-01	4.612778e-01	
9.449600e-01	7.724467e-03	1.237268e+00	1.922587e+02	-2.590536e+01	2.755814e+05	1.041491e+05	2.932391e+02	1.592648e-01	4.567403e-01	
9.519400e-01	6.774429e-03	1.239099e+00	1.906284e+02	-2.590478e+01	2.759506e+05	1.044065e+05	2.935295e+02	1.737832e-01	4.520433e-01	
9.584700e-01	5.878077e-03	1.240999e+00	1.888970e+02	-2.588780e+01	2.763226e+05	1.046705e+05	2.938212e+02	1.886701e-01	4.470992e-01	
9.645400e-01	5.038225e-03	1.243049e+00	1.871335e+02	-2.582613e+01	2.767184e+05	1.049457e+05	2.941078e+02	2.041910e-01	4.420364e-01	
9.701500e-01	4.256269e-03	1.245200e+00	1.852181e+02	-2.577537e+01	2.771178e+05	1.052303e+05	2.943962e+02	2.202429e-01	4.366109e-01	
9.752800e-01	3.536324e-03	1.247456e+00	1.832474e+02	-2.564371e+01	2.775148e+05	1.055168e+05	2.946637e+02	2.363987e-01	4.310341e-01	
9.799500e-01	2.876826e-03	1.250306e+00	1.810920e+02	-2.551377e+01	2.780256e+05	1.058603e+05	2.949490e+02	2.557711e-01	4.248431e-01	
9.841300e-01	2.283177e-03	1.253378e+00	1.787929e+02	-2.532537e+01	2.785705e+05	1.062250e+05	2.952397e+02	2.763360e-01	4.182592e-01	
9.878400e-01	1.753610e-03	1.256657e+00	1.762985e+02	-2.509380e+01	2.791470e+05	1.066119e+05	2.955420e+02	2.981597e-01	4.111769e-01	
9.910500e-01	1.293364e-03	1.260266e+00	1.735791e+02	-2.479490e+01	2.797804e+05	1.070331e+05	2.958601e+02	3.219124e-01	4.034870e-01	
9.937800e-01	9.004365e-04	1.264226e+00	1.704604e+02	-2.439341e+01	2.804693e+05	1.074968e+05	2.962110e+02	3.480648e-01	3.947763e-01	
9.960200e-01	5.769984e-04	1.268888e+00	1.668815e+02	-2.384809e+01	2.812959e+05	1.080391e+05	2.966116e+02	3.786484e-01	3.847971e-01	
9.977600e-01	3.251112e-04	1.274330e+00	1.624072e+02	-2.321685e+01	2.822673e+05	1.086827e+05	2.971042e+02	4.149436e-01	3.725742e-01	
9.990000e-01	1.452538e-04	1.281325e+00	1.567276e+02	-2.213803e+01	2.835511e+05	1.095099e+05	2.977312e+02	4.615898e-01	3.571207e-01	
9.997500e-01	3.632897e-05	1.291430e+00	1.491815e+02	-2.046833e+01	2.854594e+05	1.106723e+05	2.985371e+02	5.271468e-01	3.366247e-01	
1.000000e+00	0.000000e+00	1.275400e+00	1.353873e+02	-3.442609e-01	2.812672e+05	1.096325e+05	2.994492e+02	4.685071e-01	3.060006e-01	
1.984229e+01	2.506660e+00	1.224396e+00	2.082995e+02	-2.010753e-01	2.709017e+05	1.012733e+05	2.881400e+02	-2.914785e-03	4.999378e-01	
1.937166e+01	4.973800e+00	1.224714e+00	2.083946e+02	-1.716701e-01	2.709718e+05	1.012967e+05	2.881317e+02	-1.594767e-03	5.000432e-01	
1.859553e+01	7.362490e+00	1.224806e+00	2.083911e+02	-1.247476e-01	2.709888e+05	1.013043e+05	2.881317e+02	-1.166948e-03	4.999973e-01	
1.752613e+01	9.635070e+00	1.224805e+00	2.083996e+02	-1.132462e-01	2.709938e+05	1.013057e+05	2.881360e+02	-1.087398e-03	5.000143e-01	
1.618034e+01	1.175571e+01	1.224800e+00	2.084301e+02	-1.049289e-01	2.710013e+05	1.013066e+05	2.881397e+02	-1.036712e-03	5.000863e-01	
1.457937e+01	1.369094e+01	1.224811e+00	2.084526e+02	-9.716214e-02	2.710088e+05	1.013081e+05	2.881413e+02	-9.511612e-04	5.001344e-01	
1.274848e+01	1.541027e+01	1.224811e+00	2.084617e+02	-8.977906e-02	2.710104e+05	1.013082e+05	2.881414e+02	-9.487744e-04	5.001560e-01	
1.071654e+01	1.688656e+01	1.224800e+00	2.084667e+02	-8.594654e-02	2.710074e+05	1.013066e+05	2.881395e+02	-1.040086e-03	5.001743e-01	
8.515590e+00	1.809654e+01	1.224785e+00	2.084685e+02	-8.687374e-02	2.710019e+05	1.013042e+05	2.881362e+02	-1.175391e-03	5.001877e-01	
6.180340e+00	1.902113e+01	1.224768e+00	2.084680e+02	-8.672184e-02	2.709960e+05	1.013017e+05	2.881332e+02	-1.313237e-03	5.001959e-01	
3.747630e+00	1.964575e+01	1.224756e+00	2.084631e+02	-8.853993e-02	2.709893e+05	1.012993e+05	2.881291e+02	-1.449153e-03	5.001925e-01	
1.255810e+00	1.996053e+01	1.224750e+00	2.084543e+02	-8.379117e-02	2.709851e+05	1.012982e+05	2.881274e+02	-1.512234e-03	5.001753e-01	
-1.255810e+00	1.996053e+01	1.224747e+00	2.084415e+02	-7.647535e-02	2.709817e+05	1.012977e+05	2.881266e+02	-1.541167e-03	5.001466e-01	
-3.747630e+00	1.964574e+01	1.224776e+00	2.084288e+02	-6.712853e-02	2.709867e+05	1.013007e+05	2.881285e+02	-1.370438e-03	5.001027e-01	
-6.180340e+00	1.902113e+01	1.224811e+00	2.084290e+02	-5.470752e-02	2.709964e+05	1.013048e+05	2.881319e+02	-1.140371e-03	5.000859e-01	
-8.515590e+00	1.809654e+01	1.224848e+00	2.084391e+02	-3.845527e-02	2.710080e+05	1.013090e+05	2.881350e+02	-9.051099e-04	5.000924e-01	
-1.071654e+01	1.688656e+01	1.224890e+00	2.084379e+02	-2.582057e-02	2.710197e+05	1.013140e+05	2.881394e+02	-6.219380e-04	5.000686e-01	
-1.274848e+01	1.541026e+01	1.224924e+00	2.084368e+02	-1.182543e-02	2.710291e+05	1.013180e+05	2.881429e+02	-3.943305e-04	5.000489e-01	
-1.457937e+01	1.369094e+01	1.224967e+00	2.084342e+02	-3.228039e-03	2.710404e+05	1.013230e+05	2.881469e+02	-1.151990e-04	5.000216e-01	
-1.618034e+01	1.175570e+01	1.224997e+00	2.084304e+02	5.097059e-03	2.710482e+05	1.013265e+05	2.881499e+02	8.488296e-05	4.999977e-01	
-1.752613e+01	9.635070e+00	1.225024e+00	2.084260e+02	9.481487e-03	2.710551e+05	1.013297e+05	2.881525e+02	2.645834e-04	4.999737e-01	
-1.859553e+01	7.362490e+00	1.225056e+00	2.084189e+02	1.022344e-02	2.710630e+05	1.013335e+05	2.881559e+02	4.802173e-04	4.999408e-01	
-1.937166e+01	4.973800e+00	1.225077e+00	2.084144e+02	7.628516e-03	2.710684e+05	1.013361e+05	2.881585e+02	6.275779e-04	4.999193e-01	